material_id,composition,tc
727,Ti1Ru1P1,1.315
167,Ca1Rb1Fe4As4,35.0
482,Lu3Ru4Ge13,2.3
500,Mo3Sb7,2.97
458,Lu1Ba2Cu3O7,88.155
438,La3Se4,8.325999999999999
361,La1Fe1P1O1,5.878461538461538
330,In3La1,0.7
341,Ir2La1,0.48
794,Y5Ir4Si10,2.9066666666666667
799,Yb1Ba2Cu3O7,90.7
787,Y2Re3Si5,1.76
282,Ge1Mo3,2.1792
350,Ir5La1,2.13
3,Ag1Sn1Se2,4.655
504,Mo5Si1B2,5.8
411,La1Sb2,0.8
452,Li2B1Pd3,7.61
48,B12Y1,4.7
592,Pd2Hf1Al1,3.583333333333333
802,Yb1Mo6Se8,6.0
793,Y5Ir4Ge10,2.76
262,Ga1Nb4Se8,2.9
509,Na1Pb3,5.62
311,Hg1Ba2Ca3Cu4O10,123.5
102,Be22W1,4.12
153,C8Cs1,0.135
121,Bi2Ir1,2.715
758,Y1Ir1Si1,2.7
640,Re2Si1,3.8
236,Cu50Sn50,3.26
728,Ti1Se2,1.8
360,La1Cu1Sb2,0.9
126,Bi2Rb1,4.25
730,Ti2In1C1,3.1
631,Rb1Fe2As2,2.38
278,Gd1Ba2Cu3O7,89.762
132,Bi2Te1,8.6