material_id,composition,tc
66,B2Zr1,5.5
174,Ca3Co4Sn13,5.75
140,Bi3Sr1,5.7
409,La1Ru4P12,6.923333333333333
119,Bi2Ca2Sr1Cu2O8,70.0
254,Eu1Fe2As2,28.9
65,B2Ta1,9.5
636,Re24Sc5,2.2
796,Y5Rh4Ge10,1.35
790,Y3Os8B6,5.8
7,Al1Nb3,16.461333333333336
600,Pd2Tm1Sn1,2.82
344,Ir2Sr1,5.7
583,Pd1Sn1,0.41
517,Nb2As1C1,2.0
763,Y1Os1B4,1.4
385,La1Pd1Sb2,2.7
228,Cu1Mo6Se8,5.9
647,Rh2Sr1,6.2
716,Ta1Rh1P1,4.635
213,Ce2Pd1In8,0.69
671,Sc4Rh6Ge19,1.9
317,Hg2K1,1.2
56,B1Re3,4.75
202,Ce1Pd5Al2,0.735
538,Nd1Mo6S8,3.5
441,La4Sb3,0.25
738,Tl1Ni2Se2,3.7
725,Ti1Ir1Si1,2.2333333333333334
194,Ce1Ir1Ge3,1.61
155,C8Rb1,0.0241
82,Ba1Rh2P2,1.0
476,Lu1Si3,6.78
78,Ba1Ni2P2,2.686666666666666
668,Sc1Ru4B4,7.27
306,Hf2Ni1,0.87
435,La3Ru8B6,3.15
797,Y6Nb4Al43,0.86
20,Al6Re1,1.85
81,Ba1Rh2,6.0
781,Y2Cl2C2,2.3
162,Ca1Ni1B1N1,2.08
375,La1Ni1P1O1,3.0
653,Ru1Ti1,1.07
597,Pd2Sn1,0.41
40,Au1Zr3,0.92
136,Bi3La5,0.64
701,Sr1Pt1As1,2.425
635,Re1Ta1,1.3
45,Au5Sn1,0.9
804,Yb1Pd2Sn1,2.06
423,La3Co4Sn13,2.425
429,La3Pd4Ge4,2.4933333333333336
49,B12Zr1,5.977142857142858
161,Ca1Ir2,5.075
606,Pd34Se11,2.66
231,Cu1S1Se1,1.625
208,Ce1Ru2,5.998272727272727
200,Ce1Pd1Bi1,1.3
408,La1Ru2Si2,3.5
265,Ga1Ta4Se8,5.8
215,Co1Hf2,0.56
488,Mg1B2,33.0
156,Ca1Fe2As2,11.8
621,Pt1Sb1,2.1
207,Ce1Rh2Si2,0.3566666666666667
465,Lu1Pd2Si2,0.67
300,Hf1Pd2Al1,3.66
187,Ce1Bi1S2O1,2.3
76,Ba1Hg1,2.32
776,Y1Ru2Si2,1.1
746,Tm1Ir4B4,1.675
684,Sm1Rh4B4,2.6475
138,Bi3Ni1,3.935
469,Lu1Rh2Sn1,2.9
698,Sr1Pd1Ge3,1.5
26,As2Mo1,0.41
770,Y1Pt1Bi1,0.9066666666666666
527,Nb3Sn0.1Sn0.9,16.2