material_id,composition,tc
444,La7Ir3,2.33
203,Ce1Pt1Si2,0.14
227,Cu1La1,6.0
386,La1Pd2Al3,0.85
298,Hf1Os1P1,5.815
263,Ga1Pt1,1.74
279,Gd1Ba2Cu3S1O6,92.0
609,Pr1Ba2Cu3O7,91.0
532,Nb4Ni1Si1,7.7
88,Ba2Cu1O4,48.0
795,Y5Os4Ge10,8.946666666666667
546,Ni2Hf1Ga1,1.12
577,Pd17Se15,2.2
672,Sc5Co4Si10,4.81
354,K1Ni2Se2,0.8
723,Tc2Zr1,7.6
601,Pd2Y1Pb1,2.3
286,Ge2La1,1.9766666666666668
413,La1Si2,2.4
683,Sm1Fe1P1O1,2.5
522,Nb3Pt1,9.516428571428571
79,Ba1Pt1Si3,1.875
359,La1Bi1Pt1,0.9
638,Re24Zr5,3.875
348,Ir3La7,2.28
689,Sr1Al1Ge1,6.7
304,Hf1Ru1P1,11.796666666666669
694,Sr1Ga1Si1,5.0
118,Bi1Pt1Te1,1.15
166,Ca1Pt1Si3,2.3
9,Al1Sc1Au2,4.4
717,Ta1Ru1Si1,3.15
451,Li1Pb1,7.2
634,Re1Ge2,2.7
680,Sm1Ba2Cu3O7,80.35
501,Mo3Si1,1.402
169,Ca1Si3,4.25
769,Y1Pd2Sn1,4.993333333333333
750,Tm5Ir4Si10,1.9
777,Y1Ru3Si2,3.51
709,Sr3Rh4Sn13,4.216666666666667
177,Ca3Ir4Sn13,6.95
706,Sr2Sc1Fe1P1O3,12.0
1,Ag1La1,1.0733333333333333
811,Zr1Os1As1,8.0
436,La3S4,7.846666666666667
33,Au1In2,0.22
129,Bi2Sr2Ca1Cu2O10,110.0
679,Si3Y1,4.63
163,Ca1Pb1,7.0
372,La1Ni1B1N1,3.92
708,Sr3Ir4Sn13,5.016666666666667
172,Ca2Pt3Si5,1.3
737,Tl1La1Sr1Cu1O5,34.0
336,Ir1Mo3,8.030999999999999
437,La3Sb3Y1,0.13
424,La3Ir4Sn13,2.55
478,Lu2Fe3Si5,5.492222222222222
296,Hf1N1Cl1,25.5
342,Ir2Lu1,2.47
319,Ho1Ba2Cu3O7,91.97777777777776
570,Pb2Sr2Dy1Cu3O8,76.5
579,Pd1Sb1Se1,1.0
259,Ga1La3,5.82
401,La1Rh1Si1,4.35
615,Pr1Pt4Ge12,7.876
432,La3Rh2Ge2,3.5
421,La2Rh3Sn5,1.85
152,C6Yb1,6.496666666666666
144,C1S1,9.0
389,La1Pd2P2,0.75
396,La1Pt3Si1,0.6
295,H4Si1,17.0
503,Mo4Re2Te8,3.5
31,Au1Ga1,1.2
135,Bi3La4,0.155
652,Ru1Sb1,1.2
453,Li2B1Pt3,1.86
551,Ni2Zr1Ga1,2.87
650,Rh3Y1,1.07
623,Pt1Sn1,0.37
572,Pb3Sr1,1.85
760,Y1Ni1Ge3,0.46
778,Y1Ru4B4,1.4
660,Sb1Ta3,0.72
605,Pd2Zr1Al1,3.2
247,Er1Ir4B4,2.22
151,C6Sr1,1.65
661,Sb1V3,0.65
343,Ir2Sc1,1.5499999999999998
659,S1Se1Ta1,3.7
491,Mg4Al1Si3,5.2
101,Be22Re1,9.51
425,La3Ni1,3.6
625,Pt1Ti3,0.58
220,Co3Y4,2.033333333333333
744,Tm1Ba2Cu3O7,91.2
212,Ce2Ni3Ge5,0.22
743,Tl3Y1,1.52
489,Mg1C1Ni3,6.91125
71,B6Y1,6.641666666666667
6,Al1Mo3,0.58
117,Bi1Pt1Se1,1.45
756,Y1Fe2Si2,2.9
192,Ce1Cu2Si2,0.6496999999999999
197,Ce1Ni1Ge3,0.4549999999999999
216,Co1La3,4.226666666666667
244,Er1Ba2Cu3O7,88.39333333333335
168,Ca1Rh2,6.4
498,Mo3Os1,11.0225
62,B2Os1,2.1300000000000003
764,Y1Os2Si2,1.1
237,Dy1Ba2Cu3O7,86.13181818181819
416,La1Sn3,6.3582857142857145
529,Nb3Sn1,17.846
560,P1Rh2,1.3
700,Sr1Pd2Ge2,2.8920000000000003
473,Lu1Ru4B4,2.0
154,C8K1,0.30475
371,La1Ni1As1O1,2.7099999999999995
95,Ba8Ge46,10.0
516,Nb25Ti50Mo25,4.3
710,Sr3Rh8B6,3.4
812,Zr1Os1Si1,1.72
357,K2Mo15Se19,2.1
641,Re2Y1,1.83
445,La7Ni3,2.1
91,Ba3Ir4Ge16,6.1
719,Ta1V2,3.2
176,Ca3Ir4Ge4,1.7
52,B1I3,1.86
50,B1C1Mo2,5.933333333333334
290,Ge2Zr1,8.0
258,Ga1Hf2,0.21
301,Hf1Re2,5.203333333333333
487,Mg1Al1Si1,6.0
759,Y1Mo6Se8,6.38
526,Nb3Sn0.05Sn0.95,16.9
209,Ce1Ru3B2,1.1
595,Pd2Lu1Sn1,3.05
548,Ni2Nb1Ga1,1.54
786,Y2Ni1Ge3,0.533
484,Lu5Ir4Si10,3.82
543,Ni1Zr3,3.35
157,Ca1Ga1Si1,4.2375
243,Dy1Rh2Ir2B4,4.53
613,Pr1Os4Sb12,1.83
591,Pd20Zr80,2.91
602,Pd2Y1Sn1,4.55
329,In2Mo15Se19,1.5
107,Be5Pt1,2.3
165,Ca1Pd2As2,1.27
217,Co1Lu3,0.35
80,Ba1Pt4Ge12,5.132
245,Er1Ba2Cu4O8,78.525
316,Hg1Sr2La1Cu2O6,28.0
175,Ca3Ir4Ge13,1.7
608,Pd7Se2,0.53
805,Yb3Co4Sn13,2.5
36,Au1Pb3,4.325
447,La7Rh3,2.59
186,Ce1Au2Si2,2.0516666666666663
124,Bi2Ni3Se2,0.73
616,Pr1Ru4As12,2.3825
443,La6Zn1Sb15,3.74
392,La1Pt1Ge1,3.4
74,Ba1Bi3,5.745
283,Ge1Pt1,0.4
23,As1Rh1,0.58
46,B12Lu1,0.435
420,La2Rh3Si5,4.4
222,Cr3Rh1,0.07
637,Re24Ti5,6.6
569,Pb2Rh1,2.66
599,Pd2Tm1Pb1,2.1
164,Ca1Pb3,0.65
585,Pd1Te1,3.01
303,Hf1Rh1Si1,2.3
89,Ba2Sn3Sb6,3.9
624,Pt1Sn4,2.38
141,Bi4Rh1,2.95
544,Ni20Zr80,3.47
146,C2Y1,3.895428571428572
784,Y2I2C2,9.85
299,Hf1Os2,2.27
696,Sr1Ni2Ge2,0.8825000000000001
368,La1Ir3B2,1.65
249,Er1Pd2Sn1,1.17
345,Ir2Y1,1.6350000000000002
580,Pd1Sb1Te1,1.2
607,Pd4Se1,0.42
540,Nd1Rh4B4,5.323333333333333
735,Tl1Ba2Ca3Cu4O11,118.05
170,Ca1Tl3,2.04
397,La1Pt4Ge12,8.253333333333332